 &FCI NORB=28,NELEC=14,MS2=0,
  ORBSYM= 1,1,1,1,1,1,1,1,1,1,1,1,1,1,1,1,1,1,1,1,1,1,1,1,1,1,1,1,
  ISYM=1
 &END
 4.7675776579908584e+00    1    1    1    1
 7.1009162851015739e-03    2    1    1    1
 2.3559490366502404e-05    2    1    2    1
 4.6167157322751090e-01    2    2    1    1
-5.7100946952721564e-03    2    2    2    1
 3.5343558050288495e+00    2    2    2    2
-2.4539164547719661e-01    3    1    1    1
-3.2202936950308404e-04    3    1    2    1
 6.1317232573750687e-03    3    1    2    2
 3.4535878729023466e-02    3    1    3    1
-9.1725653461079259e-03    3    2    1    1
-3.7050618575632969e-04    3    2    2    1
 1.4768529269497099e-01    3    2    2    2
-3.0883567857031434e-04    3    2    3    1
 1.7480302074618242e-02    3    2    3    2
 1.0076350381788621e+00    3    3    1    1
 6.8573695280767114e-04    3    3    2    1
 7.4130693254595248e-01    3    3    2    2
 1.7050874239716726e-02    3    3    3    1
-1.6019186259926550e-02    3    3    3    2
 9.7387484032235194e-01    3    3    3    3
-3.1990068877186545e-01    4    1    1    1
-5.9943782761049118e-04    4    1    2    1
-6.3364816530594335e-03    4    1    2    2
 1.5817103897875957e-02    4    1    3    1
 3.0290616072318138e-04    4    1    3    2
-2.6434030765737984e-02    4    1    3    3
 4.9062152371339436e-02    4    1    4    1
 5.9672578011533842e-04    4    2    1    1
 8.5929080372069416e-05    4    2    2    1
-3.3361974393663958e-02    4    2    2    2
 1.9973074115044059e-04    4    2    3    1
-4.4839074753411524e-03    4    2    3    2
 4.4088294416121006e-03    4    2    3    3
-4.6378721319874018e-05    4    2    4    1
 1.1676669196339332e-03    4    2    4    2
 3.3830367461709580e-02    4    3    1    1
 1.3222714388863208e-04    4    3    2    1
-4.5842986109762500e-02    4    3    2    2
-1.3575811427546727e-04    4    3    3    1
 8.5222766817320340e-04    4    3    3    2
-3.8358477548849990e-03    4    3    3    3
-3.4660507124521203e-03    4    3    4    1
-2.5107564263864750e-04    4    3    4    2
 1.3310828626861585e-02    4    3    4    3
 1.0918506237304495e+00    4    4    1    1
 1.1020334013384695e-03    4    4    2    1
 3.6080249520704133e-01    4    4    2    2
-2.6352878932542716e-02    4    4    3    1
-5.0282588708957434e-03    4    4    3    2
 5.9128053747158971e-01    4    4    3    3
 1.0839987588886121e-02    4    4    4    1
 2.1386268146212609e-04    4    4    4    2
 2.7139582931913079e-03    4    4    4    3
 9.0651548501994894e-01    4    4    4    4
-3.8144020496061568e-02    5    1    1    1
-5.2246165005363710e-05    5    1    2    1
 1.0572174441689306e-03    5    1    2    2
 5.1152823637840416e-03    5    1    3    1
-5.4078203788573628e-05    5    1    3    2
 2.4066172192450069e-03    5    1    3    3
 2.8664948066657431e-03    5    1    4    1
 3.2034530619811421e-05    5    1    4    2
-5.1612265523072821e-05    5    1    4    3
-3.1626250075509014e-03    5    1    4    4
 7.6592422789488284e-04    5    1    5    1
-5.9535315690124853e-03    5    2    1    1
 3.7341467709774856e-04    5    2    2    1
-2.1800969839438467e-01    5    2    2    2
-1.5073310355726672e-04    5    2    3    1
-9.6652377885083265e-03    5    2    3    2
-1.4547940438275958e-02    5    2    3    3
 1.7322176986798334e-04    5    2    4    1
 1.9928094402507932e-03    5    2    4    2
 1.7193558200642738e-03    5    2    4    3
-3.6018857824072830e-03    5    2    4    4
-1.0672435817461183e-04    5    2    5    1
 3.0084704642640899e-02    5    2    5    2
 4.6189750965436434e-02    5    3    1    1
 1.0561208377869072e-04    5    3    2    1
-1.9150280738844838e-02    5    3    2    2
 7.2890707023637443e-04    5    3    3    1
 7.4097266727574725e-04    5    3    3    2
 1.0433650997591767e-02    5    3    3    3
-2.2844445552584833e-03    5    3    4    1
-3.0427885220150175e-04    5    3    4    2
 1.7930053867451974e-03    5    3    4    3
 1.2658471091140953e-02    5    3    4    4
 2.6703508157165243e-05    5    3    5    1
 2.6598431307743920e-03    5    3    5    2
 7.3870283558151416e-03    5    3    5    3
 1.7765462506761542e-02    5    4    1    1
 2.6743189144828175e-05    5    4    2    1
 4.9453931432034077e-03    5    4    2    2
-2.2219506372291809e-04    5    4    3    1
-5.7356426261055053e-04    5    4    3    2
 1.1162543381516633e-02    5    4    3    3
-4.9665632873427282e-04    5    4    4    1
 1.6327311179473988e-04    5    4    4    2
 1.0610156838934770e-03    5    4    4    3
 8.5813943216525284e-03    5    4    4    4
-1.3658641066925788e-05    5    4    5    1
-8.6456288543712621e-04    5    4    5    2
-1.1317410034782829e-03    5    4    5    3
 7.5357157816128542e-04    5    4    5    4
 3.2989950561890824e-01    5    5    1    1
-8.3045220379736339e-04    5    5    2    1
 7.8390364602427198e-01    5    5    2    2
 3.0334734459795194e-03    5    5    3    1
 1.5459759869635869e-02    5    5    3    2
 4.3553595015138374e-01    5    5    3    3
-3.2439084386874642e-03    5    5    4    1
-3.4524786848499603e-03    5    5    4    2
-1.3204059588421612e-02    5    5    4    3
 2.7378294201397757e-01    5    5    4    4
 2.1646984709399086e-05    5    5    5    1
 6.3252183199061897e-03    5    5    5    2
 5.6511405659100903e-03    5    5    5    3
-3.4341673556528541e-03    5    5    5    4
 6.4693865968454833e-01    5    5    5    5
-3.2391472482410503e-16    6    1    1    1
-1.2655331910975470e-19    6    1    2    1
 1.3881346350992197e-16    6    1    2    2
 2.0701937434396754e-17    6    1    3    1
 1.4601215375999628e-18    6    1    3    2
 7.2400920068729535e-18    6    1    3    3
-3.9136875725983056e-19    6    1    4    1
 2.7436688286651662e-19    6    1    4    2
-4.4460258464056106e-18    6    1    4    3
-1.2981367839235446e-16    6    1    4    4
 1.7803185980616400e-18    6    1    5    1
-3.1686876921582747e-19    6    1    5    2
-8.7328714976468110e-18    6    1    5    3
-1.7506843246149914e-18    6    1    5    4
 8.4439593398828852e-17    6    1    5    5
 2.1941916952197625e-02    6    1    6    1
 2.9651658395313637e-17    6    2    1    1
 5.7979817172696260e-18    6    2    2    1
-3.2213351805104697e-17    6    2    2    2
-2.4979340002392598e-18    6    2    3    1
-1.1066816829297576e-17    6    2    3    2
 3.7023903864116398e-17    6    2    3    3
 4.3178957656827395e-19    6    2    4    1
 5.2348149872824163e-18    6    2    4    2
-4.0951850777353335e-18    6    2    4    3
 2.0029177305921549e-17    6    2    4    4
 5.2307452790094716e-18    6    2    5    1
 1.2040803362227911e-18    6    2    5    2
-9.6400160189567734e-19    6    2    5    3
 3.5721130996704895e-18    6    2    5    4
 1.6247459230175591e-17    6    2    5    5
-1.0713407214122554e-04    6    2    6    1
 4.6213483789206136e-03    6    2    6    2
 3.1319573817782651e-17    6    3    1    1
-4.2049704392711927e-18    6    3    2    1
-1.5997016024288555e-16    6    3    2    2
 1.7230326362505710e-17    6    3    3    1
 4.3546020660665767e-18    6    3    3    2
-6.6178682470441567e-17    6    3    3    3
-2.1224431878366371e-17    6    3    4    1
-4.2880558684806433e-18    6    3    4    2
 4.1537264188032439e-17    6    3    4    3
 7.0906117730881713e-18    6    3    4    4
-1.7221033272927596e-17    6    3    5    1
 2.6224174461662393e-18    6    3    5    2
 3.3464661941613346e-18    6    3    5    3
-1.3269767294338296e-17    6    3    5    4
-6.5031068916638865e-17    6    3    5    5
 1.5200580549973475e-02    6    3    6    1
-4.3080717387504923e-03    6    3    6    2
 8.4789658475991639e-02    6    3    6    3
 1.2413934875972086e-16    6    4    1    1
 3.9816031290958781e-19    6    4    2    1
 2.2044485313174304e-16    6    4    2    2
 6.3747037990528584e-18    6    4    3    1
-1.7255147027051008e-18    6    4    3    2
 1.9527620368494179e-16    6    4    3    3
-4.7711636663624244e-17    6    4    4    1
 5.4046705942242782e-19    6    4    4    2
 1.7941257263189743e-17    6    4    4    3
 8.8418578059598192e-17    6    4    4    4
-3.5331208521932899e-18    6    4    5    1
-3.0919659690202446e-18    6    4    5    2
-3.3041843765134538e-18    6    4    5    3
-6.6470872790008127e-19    6    4    5    4
 1.4894305895638492e-16    6    4    5    5
 1.7647834802440681e-02    6    4    6    1
-7.9736195886800728e-05    6    4    6    2
 4.1732760026226869e-02    6    4    6    3
 7.3677136019312195e-02    6    4    6    4
 3.7166658736491656e-17    6    5    1    1
 5.1650379483970027e-18    6    5    2    1
 2.4179686699835282e-17    6    5    2    2
-8.1932786333406672e-18    6    5    3    1
-1.2488012765013473e-18    6    5    3    2
 3.1187444510543017e-17    6    5    3    3
 1.2817906553264355e-18    6    5    4    1
 2.4488823927849343e-18    6    5    4    2
-6.8502259792514155e-18    6    5    4    3
 3.1047291639398581e-17    6    5    4    4
 2.3076808605619446e-17    6    5    5    1
 3.0756271500145290e-18    6    5    5    2
-2.8914381667461994e-19    6    5    5    3
 1.7670129833322720e-17    6    5    5    4
 3.4067955583297500e-17    6    5    5    5
 9.9285111937186320e-04    6    5    6    1
 4.1588957638632367e-03    6    5    6    2
-1.1789194200816025e-02    6    5    6    3
 1.0377469631112238e-05    6    5    6    4
 1.9575825684530933e-02    6    5    6    5
 9.0111996794467886e-01    6    6    1    1
 6.7207924429772486e-04    6    6    2    1
 5.2784844222605165e-01    6    6    2    2
-5.6519654929217231e-04    6    6    3    1
-5.9478726617255336e-03    6    6    3    2
 6.8999025286282145e-01    6    6    3    3
-6.9805954316390379e-03    6    6    4    1
 1.4135399837602047e-03    6    6    4    2
 1.6380925575459455e-02    6    6    4    3
 6.2853973921355200e-01    6    6    4    4
 1.6050929471666994e-04    6    6    5    1
-4.7306078851874931e-03    6    6    5    2
 5.2805059357353603e-03    6    6    5    3
 9.8638425902323780e-03    6    6    5    4
 3.7440923040043106e-01    6    6    5    5
-4.3473433228909540e-17    6    6    6    1
 2.9396199656233357e-17    6    6    6    2
-5.7758119016287339e-17    6    6    6    3
 1.3337352695012997e-16    6    6    6    4
 4.6280306261512147e-17    6    6    6    5
 6.4530452797583138e-01    6    6    6    6
 2.6206107829726712e-16    7    1    1    1
-2.5045809093998591e-18    7    1    2    1
 1.6847430367243916e-16    7    1    2    2
 1.4472770146838989e-17    7    1    3    1
 6.6379008589908761e-19    7    1    3    2
 1.8234468878386446e-16    7    1    3    3
 1.4723666738864962e-18    7    1    4    1
-1.5384162626464000e-18    7    1    4    2
 9.4188023134557589e-18    7    1    4    3
 1.3188829592508360e-16    7    1    4    4
-7.3335869257739799e-18    7    1    5    1
 6.2987225638594158e-19    7    1    5    2
 2.9123595304381408e-18    7    1    5    3
-3.0966861354585475e-18    7    1    5    4
 1.2951089108889305e-16    7    1    5    5
 6.1412418143123159e-10    7    1    6    1
 7.5496836547238741e-12    7    1    6    2
-3.1415172575985781e-10    7    1    6    3
-3.0052515260348222e-10    7    1    6    4
 1.2923667689768231e-10    7    1    6    5
 1.5029955576415388e-16    7    1    6    6
 2.1941956600871365e-02    7    1    7    1
-7.7419479708177120e-17    7    2    1    1
 2.7223661771268655e-18    7    2    2    1
-6.2674603874075470e-17    7    2    2    2
 7.2738272004699767e-19    7    2    3    1
-8.0326515426113805e-18    7    2    3    2
-5.5156726391130954e-17    7    2    3    3
 3.8769368526958469e-19    7    2    4    1
 1.6909904512294587e-18    7    2    4    2
-1.1349212572943725e-18    7    2    4    3
-5.1611141197804476e-17    7    2    4    4
 5.0509683910166345e-18    7    2    5    1
 9.6306697027563881e-18    7    2    5    2
-5.5468209783986366e-18    7    2    5    3
 1.2615214786183170e-18    7    2    5    4
-4.0433889850852035e-17    7    2    5    5
 7.5981544519595158e-12    7    2    6    1
-4.5747073934002765e-10    7    2    6    2
 4.0259047779467214e-10    7    2    6    3
 1.1479770732185287e-10    7    2    6    4
-3.9502331555146113e-10    7    2    6    5
-5.4393543104336785e-17    7    2    6    6
-1.0713373387788292e-04    7    2    7    1
 4.6213232305197978e-03    7    2    7    2
 7.9493672012851425e-17    7    3    1    1
-2.5092389686744447e-18    7    3    2    1
-1.5468356204865528e-16    7    3    2    2
 2.2020008825848714e-17    7    3    3    1
 2.7933266686554796e-18    7    3    3    2
-8.2710708530434311e-17    7    3    3    3
 9.0629927901692198e-18    7    3    4    1
-2.4670153447855643e-18    7    3    4    2
 1.3783711761252659e-17    7    3    4    3
 8.6931358208685607e-18    7    3    4    4
-1.3033922520861208e-17    7    3    5    1
 2.5804647689864658e-18    7    3    5    2
 2.2215149093639697e-17    7    3    5    3
-1.2212948584497613e-17    7    3    5    4
-9.1563164865765234e-17    7    3    5    5
-3.1465795510885740e-10    7    3    6    1
 4.0202783451520224e-10    7    3    6    2
-6.1616258023585267e-09    7    3    6    3
-5.7848640622453773e-09    7    3    6    4
 1.6530663291409673e-09    7    3    6    5
-1.2311180759031110e-17    7    3    6    6
 1.5200587619075666e-02    7    3    7    1
-4.3080536192743549e-03    7    3    7    2
 8.4789528548179713e-02    7    3    7    3
 6.2927069620388833e-17    7    4    1    1
-1.9996841541747234e-18    7    4    2    1
 2.4046350210524054e-17    7    4    2    2
 1.9757175555023902e-17    7    4    3    1
-1.0938486047689576e-18    7    4    3    2
 2.0419181171744847e-17    7    4    3    3
 1.5616541473444809e-18    7    4    4    1
-2.9814130898687207e-18    7    4    4    2
 8.7370863275361158e-18    7    4    4    3
-5.3833281791901713e-18    7    4    4    4
-6.8376213000285769e-18    7    4    5    1
 2.2426996802346894e-18    7    4    5    2
-1.5611304396054774e-18    7    4    5    3
-1.6358011522879310e-17    7    4    5    4
 7.9668062943504321e-18    7    4    5    5
-3.0064157268728624e-10    7    4    6    1
 1.1459481412363609e-10    7    4    6    2
-5.7829753171567003e-09    7    4    6    3
-5.1222815762056309e-09    7    4    6    4
 9.2814430481079516e-10    7    4    6    5
 2.4659280222180409e-17    7    4    6    6
 1.7647847963918960e-02    7    4    7    1
-7.9734450958894934e-05    7    4    7    2
 4.1732663710791179e-02    7    4    7    3
 7.3677099215584796e-02    7    4    7    4
-5.9759954196447650e-17    7    5    1    1
 2.3655379406281506e-18    7    5    2    1
 2.1124989231636975e-16    7    5    2    2
 5.0979942817088706e-18    7    5    3    1
-2.5051311885704892e-18    7    5    3    2
 8.0541363581848529e-17    7    5    3    3
-1.7355244078902335e-19    7    5    4    1
 9.1793730921752004e-19    7    5    4    2
-8.9854421448212585e-18    7    5    4    3
-1.1938362156553717e-17    7    5    4    4
 2.5306486922495651e-17    7    5    5    1
-1.1550126293959290e-18    7    5    5    2
-2.2498713650527862e-17    7    5    5    3
 4.5988551638103426e-18    7    5    5    4
 1.6525889792498508e-16    7    5    5    5
 1.2944197716721874e-10    7    5    6    1
-3.9493803106902061e-10    7    5    6    2
 1.6551819700510730e-09    7    5    6    3
 9.2945959166699811e-10    7    5    6    4
-1.7054132915035085e-09    7    5    6    5
 3.8681394642092158e-17    7    5    6    6
 9.9285630033556661e-04    7    5    7    1
 4.1588733547974844e-03    7    5    7    2
-1.1789124383831595e-02    7    5    7    3
 1.0402198114458706e-05    7    5    7    4
 1.9575722464751005e-02    7    5    7    5
 1.2809151130072278e-08    7    6    1    1
 3.5027177360474538e-11    7    6    2    1
-8.3612780048561314e-09    7    6    2    2
-2.8638558955012674e-10    7    6    3    1
-1.3104113573823314e-10    7    6    3    2
-2.0547117900882442e-10    7    6    3    3
-1.6545718727706319e-10    7    6    4    1
 2.7582944793536650e-11    7    6    4    2
-2.1296016693191546e-09    7    6    4    3
 4.4367838494772649e-09    7    6    4    4
-8.9766782575834427e-12    7    6    5    1
 5.6481009776982400e-12    7    6    5    2
 7.9040845071373174e-10    7    6    5    3
 3.5378405143510009e-10    7    6    5    4
-4.8332004944433509e-09    7    6    5    5
 9.5149332336384621e-18    7    6    6    1
-1.6881465360842367e-18    7    6    6    2
 9.3049615745785099e-18    7    6    6    3
 1.1653544797113796e-17    7    6    6    4
 2.7764830245076769e-19    7    6    6    5
 4.3077517617686632e-09    7    6    6    6
-3.0633241171092694e-18    7    6    7    1
 1.7711893607635896e-18    7    6    7    2
-8.1332391037802930e-18    7    6    7    3
-4.0548382528401752e-20    7    6    7    4
 4.2769518844476654e-18    7    6    7    5
 2.7667033174997035e-02    7    6    7    6
 9.0112078364145742e-01    7    7    1    1
 6.7208136315579693e-04    7    7    2    1
 5.2784797405531081e-01    7    7    2    2
-5.6521090009502089e-04    7    7    3    1
-5.9478817210410024e-03    7    7    3    2
 6.8999036419048909e-01    7    7    3    3
-6.9806008188076163e-03    7    7    4    1
 1.4135412132885254e-03    7    7    4    2
 1.6380905580638101e-02    7    7    4    3
 6.2854015693598098e-01    7    7    4    4
 1.6050826735631503e-04    7    7    5    1
-4.7306087270852434e-03    7    7    5    2
 5.2805452915048092e-03    7    7    5    3
 9.8638550291920216e-03    7    7    5    4
 3.7440894628099552e-01    7    7    5    5
-3.7352840514007042e-17    7    7    6    1
 2.4674406862101210e-17    7    7    6    2
-3.5814109050525304e-17    7    7    6    3
 1.3284543306301177e-16    7    7    6    4
 3.1935129432196911e-17    7    7    6    5
 5.8997074143249573e-01    7    7    6    6
 1.7084762918524043e-16    7    7    7    1
-5.8646384814202930e-17    7    7    7    2
 1.7677325725931670e-17    7    7    7    3
 5.5795814544211494e-17    7    7    7    4
 3.5135655803565133e-17    7    7    7    5
 4.3077675481294360e-09    7    7    7    6
 6.4530508759010552e-01    7    7    7    7
 3.6814048993106289e-16    8    1    1    1
-7.0864575978913332e-19    8    1    2    1
 4.1390427839750534e-16    8    1    2    2
 3.6305460441360088e-18    8    1    3    1
 7.1120308991959044e-19    8    1    3    2
 3.3846274923117979e-16    8    1    3    3
 6.5784198825273567e-18    8    1    4    1
-1.6506649799236411e-19    8    1    4    2
-8.1357956251193201e-18    8    1    4    3
 2.8094082867997379e-16    8    1    4    4
 1.8698151249583976e-18    8    1    5    1
-1.4269036554096113e-18    8    1    5    2
-1.7730281248544152e-18    8    1    5    3
 3.9460121135851597e-18    8    1    5    4
 2.8399310056520729e-16    8    1    5    5
-2.4749090277708965e-02    8    1    6    1
 1.2895514838914926e-04    8    1    6    2
-1.6559118109068148e-02    8    1    6    3
-1.9594412088456734e-02    8    1    6    4
-9.6741713392017891e-04    8    1    6    5
 3.1328051685144667e-16    8    1    6    6
-1.4721490566316596e-10    8    1    7    1
-1.0454325668940311e-11    8    1    7    2
 7.3443436981186392e-10    8    1    7    3
 7.5640015321631401e-10    8    1    7    4
-1.1333643112160856e-10    8    1    7    5
-5.7530012779330946e-18    8    1    7    6
 2.8904685241748072e-16    8    1    7    7
 2.7953037673846312e-02    8    1    8    1
 3.0580484022882741e-17    8    2    1    1
 1.0374551730696029e-17    8    2    2    1
-5.8429332499618707e-18    8    2    2    2
-3.6846632224319005e-18    8    2    3    1
-1.0549211411190397e-17    8    2    3    2
 5.0403831953459924e-17    8    2    3    3
 9.2906652117851378e-19    8    2    4    1
 7.0018452450082290e-18    8    2    4    2
-5.3423366533099257e-18    8    2    4    3
 2.8240599993923775e-17    8    2    4    4
 9.5237635010971948e-18    8    2    5    1
-1.3917614887886977e-18    8    2    5    2
-1.3480156741675738e-18    8    2    5    3
 6.0354044042811065e-18    8    2    5    4
 3.0300965437047294e-17    8    2    5    5
-2.7640217653846177e-04    8    2    6    1
 8.3892610240557872e-03    8    2    6    2
-7.3898952076111241e-03    8    2    6    3
-1.3688690099292777e-04    8    2    6    4
 7.4645564514484349e-03    8    2    6    5
 4.5261906351879257e-17    8    2    6    6
-4.3471529763689050e-12    8    2    7    1
-3.8135825669463582e-10    8    2    7    2
 2.9517787245034656e-10    8    2    7    3
 1.8144903829373406e-10    8    2    7    4
-3.1304778920678032e-10    8    2    7    5
-6.5304869921217812e-19    8    2    7    6
 3.6598985345333602e-17    8    2    7    7
 3.1925986281923160e-04    8    2    8    1
 1.5271330182498509e-02    8    2    8    2
-4.8726177699847073e-17    8    3    1    1
-3.8564409768861958e-18    8    3    2    1
-1.5809109145249650e-16    8    3    2    2
 9.6825612398859917e-18    8    3    3    1
 2.9487124903173056e-18    8    3    3    2
-1.0109713495812187e-16    8    3    3    3
 3.4427424633953770e-18    8    3    4    1
-2.6016267716066330e-18    8    3    4    2
 5.4849547153537412e-18    8    3    4    3
-6.7018170079759309e-17    8    3    4    4
-9.2506037428491700e-18    8    3    5    1
 2.8401788963264157e-18    8    3    5    2
 1.7936463553468623e-18    8    3    5    3
-9.0185905004978667e-18    8    3    5    4
-7.8284607892899738e-17    8    3    5    5
-9.1932977114862376e-03    8    3    6    1
-3.4313367605022307e-03    8    3    6    2
-8.6043952115249858e-03    8    3    6    3
-1.8536990304744975e-02    8    3    6    4
-1.2016020389419848e-02    8    3    6    5
-9.1310315108359256e-17    8    3    6    6
 5.8999250590171200e-10    8    3    7    1
 1.3091425678684950e-10    8    3    7    2
 2.7203742116100187e-09    8    3    7    3
 3.0672586260653065e-09    8    3    7    4
 3.2859732000129644e-10    8    3    7    5
-1.0748355430528917e-17    8    3    7    6
-7.2460042838179632e-17    8    3    7    7
 9.6896574956920108e-03    8    3    8    1
-5.7185024070238889e-03    8    3    8    2
 2.7071725360880355e-02    8    3    8    3
 3.7367286009883565e-17    8    4    1    1
 5.4852864776656116e-19    8    4    2    1
 2.5751679813432421e-16    8    4    2    2
-4.3522332896177410e-19    8    4    3    1
 1.1878355666024024e-19    8    4    3    2
 1.4025012989056819e-16    8    4    3    3
 3.4073915460470346e-17    8    4    4    1
 7.1619201660457502e-19    8    4    4    2
-2.2752350421279671e-17    8    4    4    3
 3.6276542646411125e-17    8    4    4    4
 6.0903206250016786e-18    8    4    5    1
-5.3878052777863665e-19    8    4    5    2
-7.4943937973625388e-18    8    4    5    3
 3.9144253241571630e-18    8    4    5    4
 1.8271211901929333e-16    8    4    5    5
-1.6697493006977916e-02    8    4    6    1
 1.3326296208372162e-03    8    4    6    2
-3.6375817252983597e-02    8    4    6    3
-6.0949822863203038e-02    8    4    6    4
 1.8061896224462752e-03    8    4    6    5
 1.2517151897557420e-16    8    4    6    6
 5.1199986263307873e-10    8    4    7    1
 6.4028805285189045e-12    8    4    7    2
 3.9438490717864562e-09    8    4    7    3
 5.0234120282291501e-09    8    4    7    4
-7.0155327023323227e-11    8    4    7    5
-1.0832803754688267e-17    8    4    7    6
 1.0558003785094336e-16    8    4    7    7
 1.8561160299650353e-02    8    4    8    1
 2.2186715716694498e-03    8    4    8    2
 1.2063288852246081e-02    8    4    8    3
 5.4575902562463627e-02    8    4    8    4
-1.2897044983302235e-17    8    5    1    1
 9.2900832264413659e-18    8    5    2    1
-8.4602279042652043e-17    8    5    2    2
-1.3188934886250523e-17    8    5    3    1
-4.1047455714294278e-18    8    5    3    2
-3.1286853305526219e-17    8    5    3    3
 6.6167866067242983e-18    8    5    4    1
 4.7950243244373021e-18    8    5    4    2
-1.3124769080533236e-17    8    5    4    3
-1.2739658776089571e-17    8    5    4    4
 4.2362882556087004e-17    8    5    5    1
 4.3121508429355382e-18    8    5    5    2
-7.6278184743316658e-19    8    5    5    3
 3.1665345238193646e-17    8    5    5    4
-5.4347430346343697e-17    8    5    5    5
-2.7561229442615940e-03    8    5    6    1
 7.4546719170839612e-03    8    5    6    2
-2.9887569770609152e-02    8    5    6    3
-8.9385897691455843e-03    8    5    6    4
 3.3725054267911343e-02    8    5    6    5
 6.4225732586596381e-19    8    5    6    6
-6.3416291983299512e-11    8    5    7    1
-3.0699847370425151e-10    8    5    7    2
 1.1226096728159053e-09    8    5    7    3
 9.5803229794369203e-10    8    5    7    4
-1.2971094540827508e-09    8    5    7    5
 7.7987835908980709e-18    8    5    7    6
-2.2856783572808575e-17    8    5    7    7
 3.1017784561541981e-03    8    5    8    1
 1.3449643049837359e-02    8    5    8    2
-1.2942855255165834e-02    8    5    8    3
 1.0854063924457652e-02    8    5    8    4
 6.1964706466516160e-02    8    5    8    5
-4.2441701420868366e-01    8    6    1    1
-9.4539955224380112e-04    8    6    2    1
 1.5315425603060029e-01    8    6    2    2
 6.6640689420573492e-03    8    6    3    1
 3.3737055445034257e-03    8    6    3    2
-9.9199130550115783e-02    8    6    3    3
 2.5687329376120061e-03    8    6    4    1
-2.2312448912563146e-04    8    6    4    2
-2.0279495347312191e-02    8    6    4    3
-2.3141444872213421e-01    8    6    4    4
 7.6092488844096300e-04    8    6    5    1
 4.6315596472146486e-04    8    6    5    2
-1.6598195172324279e-02    8    6    5    3
-3.7400920699850360e-03    8    6    5    4
 9.3560949716545563e-02    8    6    5    5
 9.8662849559653111e-17    8    6    6    1
 6.7328812274734013e-18    8    6    6    2
-5.7440965457981101e-17    8    6    6    3
 1.7859558089240293e-17    8    6    6    4
 1.3279824551954027e-17    8    6    6    5
-1.3704270177367839e-01    8    6    6    6
-2.4035786571559928e-17    8    6    7    1
 3.5332056013687090e-18    8    6    7    2
-4.4183861915213360e-17    8    6    7    3
-1.3167100549227172e-17    8    6    7    4
 5.6093908754001400e-17    8    6    7    5
-5.5580077631565964e-09    8    6    7    6
-1.1939801780681883e-01    8    6    7    7
-9.3294508194655137e-18    8    6    8    1
 1.2987388706183466e-17    8    6    8    2
-2.1302051976277115e-17    8    6    8    3
 6.9333306572404290e-17    8    6    8    4
 1.0941858758794440e-17    8    6    8    5
 1.7071089881612339e-01    8    6    8    6
 1.1569790381441809e-09    8    7    1    1
 1.1734823900432315e-11    8    7    2    1
-5.4242867856671321e-09    8    7    2    2
 1.6512158936178990e-10    8    7    3    1
-1.2760442616416587e-10    8    7    3    2
 1.3578801301240471e-09    8    7    3    3
 1.0944162027818093e-10    8    7    4    1
 4.6703087680121299e-11    8    7    4    2
 1.6345004471229453e-09    8    7    4    3
 3.5655612517856636e-09    8    7    4    4
 7.3855347397561313e-12    8    7    5    1
-4.9355745164175342e-12    8    7    5    2
 2.8263558336002866e-10    8    7    5    3
 2.0798529001916257e-10    8    7    5    4
-3.0726575618650870e-09    8    7    5    5
-4.7239335866617574e-18    8    7    6    1
 1.7448389789075410e-19    8    7    6    2
-1.3147541467110961e-17    8    7    6    3
-9.6254901358984275e-18    8    7    6    4
 9.1746119864652800e-18    8    7    6    5
-6.3712382468390735e-10    8    7    6    6
 8.1708669440775157e-18    8    7    7    1
 1.2411532545965678e-18    8    7    7    2
-9.5119589077094447e-19    8    7    7    3
 1.3224488138933950e-18    8    7    7    4
-1.7875095221881092e-19    8    7    7    5
-8.8225409311600191e-03    8    7    7    6
 1.2337710989055883e-09    8    7    7    7
 8.3082329125876800e-18    8    7    8    1
-1.2292150846693286e-18    8    7    8    2
 7.7884260879623361e-19    8    7    8    3
 8.4864648528544044e-18    8    7    8    4
 7.3905601747431453e-18    8    7    8    5
-1.8054538372092816e-09    8    7    8    6
 1.6220826957716282e-02    8    7    8    7
 8.2452480804122830e-01    8    8    1    1
 2.5235385748441407e-04    8    8    2    1
 6.8130532558733692e-01    8    8    2    2
-3.6007370348955093e-03    8    8    3    1
-5.4608986126233980e-04    8    8    3    2
 6.3517832196288193e-01    8    8    3    3
-6.9444798012296399e-03    8    8    4    1
 3.2843068248845892e-04    8    8    4    2
 2.4080339213911552e-03    8    8    4    3
 5.4899885846954855e-01    8    8    4    4
-4.1662368567019052e-04    8    8    5    1
-3.5272152353522843e-03    8    8    5    2
 2.8174747866870282e-04    8    8    5    3
 7.8838212592858836e-03    8    8    5    4
 4.7090582102542877e-01    8    8    5    5
-6.1567528399853931e-19    8    8    6    1
 3.1106142081469464e-17    8    8    6    2
-6.8493362030445205e-17    8    8    6    3
 1.6272614935675405e-16    8    8    6    4
 4.4117271132096443e-17    8    8    6    5
 5.8506168492327293e-01    8    8    6    6
 1.4977828711699147e-16    8    8    7    1
-5.5622278556583152e-17    8    8    7    2
-2.9780788452705158e-17    8    8    7    3
 2.3932564257295367e-17    8    8    7    4
 6.8481168211228714e-17    8    8    7    5
 6.4420120501434931e-10    8    8    7    6
 5.4342431460081586e-01    8    8    7    7
 3.2778885694416876e-16    8    8    8    1
 4.7006707746901137e-17    8    8    8    2
-9.7041917937839997e-17    8    8    8    3
 1.4321911874873868e-16    8    8    8    4
-1.7046939896911448e-17    8    8    8    5
-6.2197645287024199e-02    8    8    8    6
-1.3495411012927772e-09    8    8    8    7
 5.9989784534754165e-01    8    8    8    8
 1.3911847670962469e-17    9    1    1    1
-2.6411582693731953e-18    9    1    2    1
-1.5569663099967748e-16    9    1    2    2
 2.7665741118314424e-17    9    1    3    1
-6.4304236283936098e-18    9    1    3    2
-8.9561964690938437e-19    9    1    3    3
 8.0559981157551169e-18    9    1    4    1
-3.0673829888886474e-20    9    1    4    2
 1.2520342765565244e-17    9    1    4    3
-3.8425409666034990e-18    9    1    4    4
-6.3902836558749037e-18    9    1    5    1
-3.4312663089734223e-18    9    1    5    2
 5.6774211935233265e-19    9    1    5    3